
      12  atoms
       2  atom types

 0.00000000e+00  5.14996644e+00  xlo xhi
 0.00000000e+00  5.14996644e+00  ylo yhi
 0.00000000e+00  5.14996644e+00  zlo zhi

 Atoms

       1        1  0.000000e+00  0.000000e+00  0.000000e+00
       2        1  0.000000e+00  2.574983e+00  2.574983e+00
       3        1  2.574983e+00  0.000000e+00  2.574983e+00
       4        1  2.574983e+00  2.574983e+00  0.000000e+00
       5        2  3.862475e+00  3.862475e+00  3.862475e+00
       6        2  1.287492e+00  3.862475e+00  3.862475e+00
       7        2  3.862475e+00  1.287492e+00  1.287492e+00
       8        2  1.287492e+00  1.287492e+00  1.287492e+00
       9        2  1.287492e+00  3.862475e+00  1.287492e+00
      10        2  3.862475e+00  3.862475e+00  1.287492e+00
      11        2  1.287492e+00  1.287492e+00  3.862475e+00
      12        2  3.862475e+00  1.287492e+00  3.862475e+00

 Masses

       1  9.122400e+01 # Zr
       2  1.599940e+01 # O

