
      14  atoms
       3  atom types

 0.00000000e+00  5.43609268e+00  xlo xhi
 0.00000000e+00  4.70779436e+00  ylo yhi
 0.00000000e+00  2.44385511e+01  zlo zhi

 Atoms

       1        1  1.359023e+00  7.846324e-01  1.443855e+01
       2        1  4.077070e+00  7.846324e-01  1.443855e+01
       3        1  2.220446e-16  3.138530e+00  1.443855e+01
       4        1  2.718046e+00  3.138530e+00  1.443855e+01
       5        1  1.110223e-16  1.569265e+00  1.221928e+01
       6        1  2.718046e+00  1.569265e+00  1.221928e+01
       7        1  4.077070e+00  3.923162e+00  1.221928e+01
       8        1  1.359023e+00  3.923162e+00  1.221928e+01
       9        1  0.000000e+00  0.000000e+00  1.000000e+01
      10        1  4.077070e+00  2.353897e+00  1.000000e+01
      11        1  1.359023e+00  2.353897e+00  1.000000e+01
      12        1  2.718046e+00  0.000000e+00  1.000000e+01
      13        2  2.718046e+00  1.689978e+00  1.552253e+01
      14        3  2.718046e+00  1.689978e+00  1.667253e+01

 Masses

       1  1.029055e+02 # Rh
       2  1.400674e+01 # N
       3  1.599940e+01 # O

